optimize c6 hill cartesian prop phonon nonon    ## conp rfo
#
update 10
#stepmx opt 0.14
#update 16
#stepmx fit 0.20
#maxcycl fit 17
#
title
WS2 NTs
end
#
#
#
name 2H_WS2  bulk  1
cell
3.1532    3.1532   12.323   90.0000   90.0000  120.0000   1 1 1 0 0 0#  J. Solid State Chem. (1987), 70, 207, 209. Schutte W.J., De Boer J.L., Jellinek F.
fractional
W  core   0.33333333333  0.666666666667  0.2500000  0.000  1 1 1#
S  core   0.33333333333  0.666666666667  0.6225000  0.000  1 1 1#
space
194
#
#
sw3
S W W    52.717630    75.080570     0.920875     0.920875 0.0 3.16 0. 3.16 0. 4.3 1 0 0 0 #
#
morse                                                         
W  W         0.800662     2.008547     2.216219            15.0  1 0 0    
W  S         0.936199     2.281998     2.455657            15.0  1 0 0    
#
buck                                                      
S   S    4481.404822     0.300434     100.061008           15.0  1 0 0
#
species                                                       
W  core   1.08                                                
S  core  -0.54
#                                                             
#
# output arc WS2_DWNT_check_go.car

#2H   a        c         WS     SWS    WSW
#exp  3.1532   12.323    2.40   81.6   81.9
#cacl
#
#


                                                                    


********************************************************************************
*                       GENERAL UTILITY LATTICE PROGRAM                        *
*                                 Julian Gale                                  *
*                       Curtin Institute for Computation                       *
*                    School of Molecular and Life Sciences                     *
*                    Curtin University, Western Australia                      *
********************************************************************************
* Version = 6.0.0 * Last modified =   9th June 2021                            *
********************************************************************************
*  optimise     - perform optimisation run                                     *
*  c6           - use real and reciprocal space sum for C6 terms               *
*  property     - calculate properties for final geometry                      *
*  phonon       - calculate phonons for final geometry                         *
*  nononanal    - exclude non-analytic correction to gamma point phonons       *
********************************************************************************
* WS2 NTs                                                                      *
********************************************************************************


  Job Started  at 01:35.10 14th October    2024                               

  Number of CPUs =     1


  Total number of configurations input =      1

********************************************************************************
*  Input for Configuration =   1 : 2H_WS2                                      *
********************************************************************************

  Formula = W2S4                                                        

  Number of irreducible atoms/shells =       2


  Total number atoms/shells =       6

  Dimensionality = 3               :  Bulk   


  Symmetry :

  Crystal family                   :  Hexagonal   
  Crystal class  (Groth - 1921)    :  Dihexagonal Dipyramidal              

  Space group (centrosymmetric)    :  P 63/M M C      

  Patterson group                  :  P 6/m m m

  Cartesian lattice vectors (Angstroms) :

        3.153200    0.000000    0.000000
       -1.576600    2.730751    0.000000
        0.000000    0.000000   12.323000

  Cell parameters (Angstroms/Degrees):

  a =       3.1532    alpha =  90.0000
  b =       3.1532    beta  =  90.0000
  c =      12.3230    gamma = 120.0000

  Initial cell volume =         106.108486 Angs**3

  Temperature of configuration =   0.00     K 

  Pressure of configuration =         0.000 GPa 

  Fractional coordinates of asymmetric unit :

--------------------------------------------------------------------------------
   No.  Atomic       x           y          z         Charge      Occupancy
        Label      (Frac)      (Frac)     (Frac)        (e)         (Frac)  
--------------------------------------------------------------------------------
      1 W     c    0.333333    0.666667    0.250000     1.08000    1.000000    
      2 S     c    0.333333    0.666667    0.622500 *  -0.54000    1.000000    
--------------------------------------------------------------------------------


  Initial Cartesian coordinates :

--------------------------------------------------------------------------------
   No.  Atomic        x           y           z          Charge   Occupancy
        Label       (Angs)      (Angs)      (Angs)        (e)       (Frac)  
--------------------------------------------------------------------------------
      1 W     c    -0.000000    1.820501    3.080750    1.080000    1.000000
      2 W     c     1.576600    0.910250    9.242250    1.080000    1.000000
      3 S     c    -0.000000    1.820501    7.671067   -0.540000    1.000000
      4 S     c     1.576600    0.910250    1.509567   -0.540000    1.000000
      5 S     c     1.576600    0.910250    4.651933   -0.540000    1.000000
      6 S     c    -0.000000    1.820501   10.813433   -0.540000    1.000000
--------------------------------------------------------------------------------


  Constraints : 

--------------------------------------------------------------------------------
  Constraint no.      Unconstrained     Constrained    Coefficient    Offset
                         Variable         Variable
--------------------------------------------------------------------------------
           1              Strain 1        Strain 2       1.00000      0.0000
--------------------------------------------------------------------------------

  Brillouin zone sampling points :

--------------------------------------------------------------------------------
  Point number          x          y          z            Weight
--------------------------------------------------------------------------------
        1           0.000000   0.000000   0.000000     1.00000000
--------------------------------------------------------------------------------


********************************************************************************
*  General input information                                                   *
********************************************************************************

  Species output for all configurations : 

--------------------------------------------------------------------------------
  Species    Type    Atomic    Atomic    Charge       Radii (Angs)     Library
                     Number     Mass       (e)     Cova   Ionic  VDW   Symbol
--------------------------------------------------------------------------------
    W        Core       74     183.85   1.080000   1.370  0.000  2.040          
    S        Core       16      32.07  -0.540000   1.020  0.000  1.700          
--------------------------------------------------------------------------------


  Lattice summation method               =    Ewald          (3-D)
                                         =    Parry          (2-D)
                                         =    Saunders et al (1-D)
  Accuracy factor for lattice sums       =   12.000


  Analytic derivatives to be used

  Time limit = Infinity

  Maximum range for interatomic potentials =    100000.000000 Angstroms

  C6 terms to be calculated in real and reciprocal space 

  General interatomic potentials :

--------------------------------------------------------------------------------
Atom  Types   Potential      Parameter       Value         Units   Cutoffs(Ang)
  1     2                                                            Min /  Max 
--------------------------------------------------------------------------------
W    c W    c Morse         Morse  De       0.80066200    eV        0.000 15.000
                            Morse  a0        2.0085470    Ang^-1    
                            Morse  r0        2.2162190    Ang       
--------------------------------------------------------------------------------
S    c W    c Morse         Morse  De       0.93619900    eV        0.000 15.000
                            Morse  a0        2.2819980    Ang^-1    
                            Morse  r0        2.4556570    Ang       
--------------------------------------------------------------------------------
S    c S    c Buckingham    Buckingham A     4481.4048    eV        0.000 15.000
                            Buckingham rho  0.30043400    Ang       
                            Buckingham C     100.06101    eV*Ang^6  
--------------------------------------------------------------------------------

  General Three-body potentials :

--------------------------------------------------------------------------------
  Atoms       Potential      Parameter       Value         Units   Cutoffs(Ang)
  1 / 2 / 3                                                          Min /  Max 
--------------------------------------------------------------------------------
S     core    StillingerWeb Three-body cnst  52.717630    eV        0.000  3.160
W     core                  Three-body angl  75.080570    degrees   0.000  3.160
W     core                  Three-body rho1 0.92087500    Ang       0.000  4.300
                            Three-body rho2 0.92087500    Ang       
--------------------------------------------------------------------------------

********************************************************************************
*  Output for configuration   1 : 2H_WS2                                       *
********************************************************************************


  Components of energy : 

--------------------------------------------------------------------------------
  Interatomic potentials     =         -11.37007963 eV    
  Three-body potentials      =           0.75754305 eV    
  Monopole - monopole (real) =          -3.34612893 eV    
  Monopole - monopole (recip)=         -10.25752145 eV    
  Monopole - monopole (total)=         -13.60365038 eV    
  Dispersion (real+recip)    =          -2.18598319 eV    
--------------------------------------------------------------------------------
  Total lattice energy       =         -26.40217014 eV    
--------------------------------------------------------------------------------
  Total lattice energy       =           -2547.4058 kJ/(mole unit cells)
--------------------------------------------------------------------------------


  Number of variables =        3

  Maximum number of calculations  =          1000
  Maximum Hessian update interval =            10
  Maximum step size               =   1.000000000
  Maximum parameter tolerance     =   0.000010000
  Maximum function  tolerance     =   0.000010000
  Maximum gradient  tolerance     =   0.001000000
  Maximum gradient  component     =   0.010000000

  Symmetry constrained optimisation

  Symmetry used for second derivatives

  Cell parameters to be optimised using strains

  Newton-Raphson optimiser to be used

  BFGS hessian update to be used

  Lower half triangular hessian to be used

  Start of bulk optimisation :

  Cycle:      0 Energy:       -26.402170  Gnorm:      7.642674  CPU:    0.000
  ** Hessian calculated **
  Cycle:      1 Energy:       -26.436880  Gnorm:      1.838434  CPU:    0.000
  Cycle:      2 Energy:       -26.439302  Gnorm:      0.112241  CPU:    0.000
  Cycle:      3 Energy:       -26.439310  Gnorm:      0.005009  CPU:    0.016


  **** Optimisation achieved ****


  Final energy =     -26.43930959 eV      
  Final Gnorm  =       0.00042419

  Components of energy : 

--------------------------------------------------------------------------------
  Interatomic potentials     =         -11.24270374 eV    
  Three-body potentials      =           0.60670806 eV    
  Monopole - monopole (real) =          -3.11538873 eV    
  Monopole - monopole (recip)=         -10.31013965 eV    
  Monopole - monopole (total)=         -13.42552838 eV    
  Dispersion (real+recip)    =          -2.37778553 eV    
--------------------------------------------------------------------------------
  Total lattice energy       =         -26.43930959 eV    
--------------------------------------------------------------------------------
  Total lattice energy       =           -2550.9892 kJ/(mole unit cells)
--------------------------------------------------------------------------------

  Final asymmetric unit coordinates :

--------------------------------------------------------------------------------
   No.  Atomic        x           y           z         Radius
        Label       (Frac)      (Frac)      (Frac)       (Angs) 
--------------------------------------------------------------------------------
     1  W     c     0.333333    0.666667    0.250000    0.000000
     2  S     c     0.333333    0.666667    0.617384    0.000000
--------------------------------------------------------------------------------

  Final Cartesian coordinates :

--------------------------------------------------------------------------------
   No.  Atomic        x           y           z          Charge   Occupancy
        Label       (Angs)      (Angs)      (Angs)        (e)       (Frac)  
--------------------------------------------------------------------------------
     1  W     c    -0.000000    1.807842    2.990611    1.080000    1.000000
     2  W     c     1.565637    0.903921    8.971833    1.080000    1.000000
     3  S     c    -0.000000    1.807842    7.385418   -0.540000    1.000000
     4  S     c     1.565637    0.903921    1.404196   -0.540000    1.000000
     5  S     c     1.565637    0.903921    4.577026   -0.540000    1.000000
     6  S     c    -0.000000    1.807842   10.558248   -0.540000    1.000000
--------------------------------------------------------------------------------


  Final Cartesian lattice vectors (Angstroms) :

        3.131275    0.000000    0.000000
       -1.565637    2.711763    0.000000
        0.000000    0.000000   11.962444


  Final cell parameters and derivatives :

--------------------------------------------------------------------------------
       a            3.131275 Angstrom     dE/de1(xx)     0.000168 eV/strain
       b            3.131275 Angstrom     dE/de2(yy)     0.000000 eV/strain
       c           11.962444 Angstrom     dE/de3(zz)     0.000117 eV/strain
       alpha       90.000000 Degrees      dE/de4(yz)     0.000000 eV/strain
       beta        90.000000 Degrees      dE/de5(xz)     0.000000 eV/strain
       gamma      120.000000 Degrees      dE/de6(xy)     0.000000 eV/strain
--------------------------------------------------------------------------------

  Primitive cell volume =           101.576414 Angs**3

  Density of cell =      8.108253 g/cm**3

  Non-primitive cell volume =           101.576414 Angs**3


  Final internal derivatives :

--------------------------------------------------------------------------------
   No.  Atomic          a             b             c           Radius
        Label          (eV)          (eV)          (eV)        (eV/Angs)
--------------------------------------------------------------------------------
      1 W     c       0.000000      0.000000      0.000000      0.000000
      2 S     c       0.000000      0.000000     -0.001256      0.000000
--------------------------------------------------------------------------------
  Maximum abs         0.000000      0.000000      0.001256      0.000000
--------------------------------------------------------------------------------


  Born effective charge tensors : 

-------------------------------------------------------------------------------
  Atom             x           y             z
-------------------------------------------------------------------------------
    1 W     x       1.0800      0.0000      0.0000
            y       0.0000      1.0800      0.0000
            z       0.0000      0.0000      1.0800
-------------------------------------------------------------------------------
    2 S     x      -0.5400      0.0000      0.0000
            y       0.0000     -0.5400      0.0000
            z       0.0000      0.0000     -0.5400
-------------------------------------------------------------------------------




  Elastic Constant Matrix: (Units=GPa)

-------------------------------------------------------------------------------
  Indices      1         2         3         4         5         6    
-------------------------------------------------------------------------------
       1    174.2320   56.9532   16.6681   -0.0000    0.0000    0.0000
       2     56.9532  174.2320   16.6681   -0.0000    0.0000    0.0000
       3     16.6681   16.6681   60.2064    0.0000   -0.0000   -0.0000
       4     -0.0000   -0.0000    0.0000   16.1776   -0.0000    0.0000
       5      0.0000    0.0000   -0.0000   -0.0000   16.1776   -0.0000
       6      0.0000    0.0000   -0.0000    0.0000   -0.0000   58.6394
-------------------------------------------------------------------------------


  Elastic Compliance Matrix: (Units=1/GPa)

-------------------------------------------------------------------------------
  Indices      1         2         3         4         5         6    
-------------------------------------------------------------------------------
       1    0.006516 -0.002011 -0.001247 -0.000000 -0.000000  0.000000
       2   -0.002011  0.006516 -0.001247  0.000000  0.000000 -0.000000
       3   -0.001247 -0.001247  0.017300 -0.000000  0.000000  0.000000
       4   -0.000000  0.000000 -0.000000  0.061814  0.000000 -0.000000
       5   -0.000000  0.000000  0.000000  0.000000  0.061814  0.000000
       6    0.000000 -0.000000  0.000000 -0.000000  0.000000  0.017053
-------------------------------------------------------------------------------

  Mechanical properties :

-------------------------------------------------------------------------------
  Convention :                    Reuss         Voigt         Hill
-------------------------------------------------------------------------------
  Bulk  Modulus (GPa)     =      46.90058      65.47213      56.18635
  Shear Modulus (GPa)     =      26.71928      39.42434      33.07181
-------------------------------------------------------------------------------
  Velocity S-wave (km/s)  =       1.81530       2.20505       2.01960
  Velocity P-wave (km/s)  =       3.19031       3.81546       3.51680
-------------------------------------------------------------------------------
  Compressibility (1/GPa) =    0.02132170
-------------------------------------------------------------------------------
  Stress axis :                     x             y             z
-------------------------------------------------------------------------------
  Youngs Moduli (GPa)     =     153.46736     153.46736      57.80293
-------------------------------------------------------------------------------
  Poissons Ratio (x)      =                     0.30857       0.07210
  Poissons Ratio (y)      =       0.30857                     0.07210
  Poissons Ratio (z)      =       0.19142       0.19142
-------------------------------------------------------------------------------


  Piezoelectric Strain Matrix: (Units=C/m**2)

-------------------------------------------------------------------------------
  Indices      1         2         3         4         5         6    
-------------------------------------------------------------------------------
       x     0.00000   0.00000   0.00000  -0.00000  -0.00000   0.00000
       y    -0.00000  -0.00000  -0.00000   0.00000  -0.00000  -0.00000
       z    -0.00000   0.00000  -0.00000   0.00000  -0.00000  -0.00000
-------------------------------------------------------------------------------


  Piezoelectric Stress Matrix: (Units=10**-11 C/N)

-------------------------------------------------------------------------------
  Indices      1         2         3         4         5         6    
-------------------------------------------------------------------------------
       x    -0.00000   0.00000   0.00000  -0.00000  -0.00000   0.00000
       y    -0.00000   0.00000  -0.00000   0.00000  -0.00000  -0.00000
       z    -0.00000   0.00000  -0.00000   0.00000  -0.00000  -0.00000
-------------------------------------------------------------------------------


  Static dielectric constant tensor : 

-------------------------------------------------------------------------------
              x         y         z
-------------------------------------------------------------------------------
       x     1.18885  -0.00000  -0.00000
       y    -0.00000   1.18885   0.00000
       z    -0.00000   0.00000   1.07349
--------------------------------------------------------------------------------

  Static refractive indices : 

-------------------------------------------------------------------------------
    1 =    1.03610      2 =    1.09035      3 =    1.09035
-------------------------------------------------------------------------------


  Phonon Calculation : 

  Number of k points for this configuration =        1

--------------------------------------------------------------------------------
  K point      1 =   0.000000  0.000000  0.000000  Weight =    1.000
--------------------------------------------------------------------------------

  Frequencies (cm-1) [NB: Negative implies an imaginary mode]:

   -0.00   -0.00    0.00   25.22   25.22   49.11  303.11  303.11  306.89
  306.89  354.74  354.74  357.09  357.09  521.58  536.62  568.65  600.04


--------------------------------------------------------------------------------
  Phonon properties (per mole of unit cells): Temperature =      0.000 K
--------------------------------------------------------------------------------
  Zero point energy            =        0.308110 eV
--------------------------------------------------------------------------------

  Phonon density of states : 

--------------------------------------------------------------------------------
 Frequency (cm-1) Density of States                                             
--------------------------------------------------------------------------------
    0.00000 |***************                                               0.062
    9.37560 |                                                              0.000
   18.75120 |******************************                                0.125
   28.12680 |                                                              0.000
   37.50240 |                                                              0.000
   46.87800 |***************                                               0.062
   56.25360 |                                                              0.000
   65.62921 |                                                              0.000
   75.00481 |                                                              0.000
   84.38041 |                                                              0.000
   93.75601 |                                                              0.000
  103.13161 |                                                              0.000
  112.50721 |                                                              0.000
  121.88281 |                                                              0.000
  131.25841 |                                                              0.000
  140.63401 |                                                              0.000
  150.00961 |                                                              0.000
  159.38521 |                                                              0.000
  168.76081 |                                                              0.000
  178.13641 |                                                              0.000
  187.51202 |                                                              0.000
  196.88762 |                                                              0.000
  206.26322 |                                                              0.000
  215.63882 |                                                              0.000
  225.01442 |                                                              0.000
  234.39002 |                                                              0.000
  243.76562 |                                                              0.000
  253.14122 |                                                              0.000
  262.51682 |                                                              0.000
  271.89242 |                                                              0.000
  281.26802 |                                                              0.000
  290.64362 |                                                              0.000
  300.01922 |************************************************************  0.250
  309.39483 |                                                              0.000
  318.77043 |                                                              0.000
  328.14603 |                                                              0.000
  337.52163 |                                                              0.000
  346.89723 |******************************                                0.125
  356.27283 |******************************                                0.125
  365.64843 |                                                              0.000
  375.02403 |                                                              0.000
  384.39963 |                                                              0.000
  393.77523 |                                                              0.000
  403.15083 |                                                              0.000
  412.52643 |                                                              0.000
  421.90203 |                                                              0.000
  431.27764 |                                                              0.000
  440.65324 |                                                              0.000
  450.02884 |                                                              0.000
  459.40444 |                                                              0.000
  468.78004 |                                                              0.000
  478.15564 |                                                              0.000
  487.53124 |                                                              0.000
  496.90684 |                                                              0.000
  506.28244 |                                                              0.000
  515.65804 |***************                                               0.062
  525.03364 |                                                              0.000
  534.40924 |***************                                               0.062
  543.78485 |                                                              0.000
  553.16045 |                                                              0.000
  562.53605 |***************                                               0.062
  571.91165 |                                                              0.000
  581.28725 |                                                              0.000
  590.66285 |***************                                               0.062
--------------------------------------------------------------------------------



  Time to end of optimisation =       0.0156 seconds


  Peak dynamic memory used =       1.82 MB 


  Timing analysis for GULP :

--------------------------------------------------------------------------------
  Task / Subroutine                                          Time (Seconds)
--------------------------------------------------------------------------------
  Calculation of three-body energy and derivatives                0.0156
--------------------------------------------------------------------------------
  Total CPU time                                                  0.0156
--------------------------------------------------------------------------------


  Job Finished at 01:35.10 14th October    2024                               

